/*--------------------------------*- C++ -*----------------------------------*\
| =========                 |                                                 |
| \\      /  F ield         | OpenFOAM: The Open Source CFD Toolbox           |
|  \\    /   O peration     | Version:  v1912                                 |
|   \\  /    A nd           | Website:  www.openfoam.com                      |
|    \\/     M anipulation  |                                                 |
\*---------------------------------------------------------------------------*/
FoamFile
{
    version     2.0;
    format      ascii;
    class       volScalarField;
    location    "20000";
    object      nut;
}
// * * * * * * * * * * * * * * * * * * * * * * * * * * * * * * * * * * * * * //

dimensions      [0 2 -1 0 0 0 0];

internalField   uniform 0;

boundaryField
{

    inlet1
    {
        type            zeroGradient;        
    }

    inlet2
    {
        type            zeroGradient;
    }

    outlet
    {
        type            zeroGradient;
    }
        
    nozzle_outer
    {
        type            fixedValue;
	value		uniform 0;
    }
    axis
    {
        type            empty;
    }

    diffuser
    {
        type            fixedValue;
	value		uniform 0;
    }

    front
    {
        type            wedge;
    }

    back
    {
        type            wedge;
    }

}
  
//****************************************************************************//
    



























